# LAMMPS data
50000 atoms
2 atom types
 0.006000 80.006000 xlo xhi
-0.008000 79.992000 ylo yhi
-0.010999 79.989001 zlo zhi
0.0 0.0 0.0 xy xz yz

Atoms # metal

1     2     2.614000  32.938000  12.718000
2     2     1.499000  33.439999  12.494000
3     2     11.634000  1.387000  18.422001
4     2     12.314000  2.275000  17.881001
5     2     62.308998  6.864000  42.132000
6     2     61.306000  6.154000  42.313000
7     2     39.501999  53.463001  1.275000
8     2     40.235001  53.257999  2.257000
9     2     48.605000  62.361000  45.525002
10     2     49.796001  62.307999  45.874001
11     2     77.608002  32.442001  27.708000
12     2     78.484001  32.000999  28.469999
13     2     47.495998  15.866000  23.856001
14     2     48.165001  15.955000  22.813000
15     2     13.659000  32.713001  46.547001
16     2     14.108000  33.837002  46.269001
17     2     57.261002  74.148003  7.374000
18     2     57.910000  75.204002  7.288000
19     2     19.900000  13.546000  23.006001
20     2     20.274000  12.666000  23.799000
21     2     72.570000  76.251999  40.101002
22     2     73.527000  75.515999  40.390999
23     2     72.869003  36.480999  40.527000
24     2     73.116997  37.671001  40.271999
25     2     9.892000  39.068001  71.078003
26     2     10.110000  40.117001  70.449997
27     2     10.353000  29.045000  6.522000
28     2     9.894000  27.892000  6.564000
29     2     21.320000  52.882999  22.877001
30     2     20.350000  52.162998  23.165001
31     2     76.193001  73.602997  54.741001
32     2     76.176003  72.972000  53.671001
33     2     72.149002  62.455002  10.742000
34     2     71.095001  62.553001  10.091000
35     2     53.051998  62.518002  29.563999
36     2     51.827999  62.422001  29.368999
37     2     37.598999  37.375999  33.377998
38     2     36.694000  38.227001  33.397999
39     2     77.129997  38.147999  69.421997
40     2     78.350998  38.015999  69.611000
41     2     46.562000  48.824001  37.327999
42     2     46.266998  49.841000  37.977001
43     2     26.232000  74.346001  31.790001
44     2     25.653000  73.264999  31.594999
45     2     27.834000  41.779999  49.669998
46     2     27.371000  42.931999  49.695999
47     2     4.626000  2.880000  64.045998
48     2     4.015000  2.096000  63.299999
49     2     71.341003  10.679000  6.932000
50     2     72.092003  9.734000  6.639000
51     2     62.237999  27.740999  46.062000
52     2     61.744999  26.799000  45.418999
53     2     9.772000  54.578999  59.941002
54     2     9.792000  55.716000  60.443001
55     2     76.926003  24.403999  23.174999
56     2     75.973999  24.698000  23.917000
57     2     7.466000  10.736000  8.887000
58     2     6.786000  11.497000  8.178000
59     2     24.231001  11.917000  10.951000
60     2     23.948999  10.871000  10.343000
61     2     28.743000  51.105000  15.568000
62     2     27.645000  51.490002  15.134000
63     2     67.335999  33.206001  57.092999
64     2     68.434998  32.643002  56.962002
65     2     13.243000  77.356003  74.195000
66     2     13.561000  76.994003  75.341003
67     2     67.917000  68.903999  46.741001
68     2     68.834999  68.067001  46.720001
69     2     76.575996  45.758999  77.069000
70     2     76.260002  46.958000  77.141998
71     2     54.577999  52.167999  60.575001
72     2     55.398998  53.016998  60.959000
73     2     14.047000  63.886002  52.888000
74     2     14.951000  63.049999  52.719002
75     2     40.884998  33.471001  30.280001
76     2     39.792000  33.785000  29.780001
77     2     68.063004  38.026001  2.052000
78     2     69.260002  37.701000  2.124000
79     2     62.657001  8.537000  0.192000
80     2     63.257000  9.569000  0.535000
81     2     8.732000  29.757999  18.448999
82     2     7.859000  28.875000  18.462999
83     2     22.420000  42.254002  13.152000
84     2     22.507999  41.178001  13.767000
85     2     43.778000  67.160004  51.386002
86     2     43.678001  67.129997  52.624001
87     2     59.133999  57.914001  26.396999
88     2     59.346001  58.147999  25.195999
89     2     9.407000  28.087999  63.152000
90     2     9.837000  29.141001  62.653000
91     2     27.589001  53.514999  66.477997
92     2     27.670000  52.488998  65.782997
93     2     54.410999  44.131001  27.017000
94     2     54.516998  42.998001  26.520000
95     2     48.278999  61.344002  20.223000
96     2     48.257000  62.469002  20.749001
97     2     57.769001  64.010002  77.819000
98     2     57.013000  64.848000  77.299004
99     2     13.485000  33.477001  69.353996
100     2     12.624000  32.686001  69.773003
101     2     49.526001  25.221001  0.813000
102     2     48.595001  25.686001  1.492000
103     2     32.230000  9.948000  11.612000
104     2     31.072001  10.248000  11.278000
105     2     15.680000  9.028000  51.813999
106     2     14.641000  9.703000  51.731998
107     2     78.288002  10.737000  64.917000
108     2     77.510002  11.655000  64.606003
109     2     44.237000  18.188000  63.198002
110     2     44.584999  16.997999  63.280998
111     2     67.356003  30.273001  25.844999
112     2     66.170998  29.995001  25.594999
113     2     31.096001  13.698000  55.301998
114     2     31.493999  14.287000  54.283001
115     2     3.349000  64.577003  45.384998
116     2     4.330000  65.066002  45.967999
117     2     7.938000  44.720001  76.714996
118     2     7.607000  44.325001  77.845001
119     2     8.758000  30.261999  37.520000
120     2     8.341000  30.760000  36.462002
121     2     5.101000  76.420998  14.004000
122     2     4.880000  77.565002  14.436000
123     2     20.820999  24.007999  55.973999
124     2     20.851000  25.233999  55.778000
125     2     64.930000  26.555000  31.389999
126     2     64.478996  25.546000  31.957001
127     2     68.776001  27.254999  4.834000
128     2     68.823997  26.024000  4.673000
129     2     51.491001  25.808001  24.516001
130     2     52.515999  25.881001  23.818001
131     2     47.138000  16.943001  49.699001
132     2     47.639999  16.830000  48.569000
133     2     56.271000  15.405000  71.818001
134     2     56.148998  15.164000  73.030998
135     2     50.113998  18.094000  76.764000
136     2     50.991001  18.121000  77.643997
137     2     70.760002  47.088001  34.714001
138     2     70.410004  46.210999  35.521999
139     2     70.932999  18.201000  72.198997
140     2     71.329002  18.712999  71.138000
141     2     45.437000  19.650999  60.084000
142     2     46.258999  19.801001  59.165001
143     2     32.224998  67.316002  76.596001
144     2     32.768002  67.998001  77.481003
145     2     39.727001  44.077000  63.175999
146     2     40.639999  44.400002  62.398998
147     2     50.750999  24.590000  2.988000
148     2     50.448002  25.795000  2.986000
149     2     30.532000  77.050003  56.056000
150     2     31.665001  76.567001  56.222000
151     2     65.010002  36.666000  74.189003
152     2     65.707001  35.926998  74.903999
153     2     24.035000  54.733002  19.091000
154     2     23.650000  54.566002  17.922001
155     2     6.190000  72.000999  2.235000
156     2     5.964000  73.213997  2.086000
157     2     1.292000  63.187000  68.480003
158     2     0.156000  62.851002  68.108002
159     2     23.832001  74.524002  78.807999
160     2     23.764999  75.560997  79.488998
161     2     52.528999  42.154999  59.591000
162     2     52.904999  41.122002  59.012001
163     2     43.463001  17.166000  18.739000
164     2     43.013000  16.205000  19.384001
165     2     22.768000  46.000000  34.473000
166     2     22.346001  45.618000  33.368999
167     2     69.022003  2.475000  21.042000
168     2     67.781998  2.427000  20.980000
169     2     35.816002  23.766001  33.185001
170     2     37.044998  23.924999  33.096001
171     2     41.941002  72.834000  59.250000
172     2     42.514999  73.569000  60.070000
173     2     40.841999  78.025002  42.212002
174     2     40.191002  76.991997  41.985001
175     2     32.786999  59.650002  -0.002000
176     2     33.492001  58.626999  0.010000
177     2     47.638000  37.008999  29.399000
178     2     47.169998  38.110001  29.733999
179     2     49.966999  5.228000  17.893999
180     2     49.605999  6.403000  18.075001
181     2     19.386000  64.152000  61.589001
182     2     19.657000  64.057999  60.380001
183     2     54.185001  14.923000  70.846001
184     2     54.481998  14.101000  71.727997
185     2     29.091000  61.294998  31.599001
186     2     28.556000  62.297001  32.102001
187     2     73.017998  26.941000  33.893002
188     2     72.824997  26.184999  34.859001
189     2     41.369999  78.035004  40.076000
190     2     40.380001  77.329002  39.820000
191     2     42.034000  2.976000  74.448997
192     2     41.683998  3.423000  75.554001
193     2     63.208000  31.075001  52.099998
194     2     64.371002  31.080999  52.536999
195     2     0.021000  67.420998  39.389000
196     2     -0.004000  67.931999  38.257000
197     2     12.126000  44.571999  42.817001
198     2     13.360000  44.516998  42.681999
199     2     62.626999  54.849998  26.145000
200     2     63.577999  55.645000  26.066000
201     2     21.205999  0.929000  77.789001
202     2     20.112000  0.357000  77.644997
203     2     17.146999  45.688999  46.980000
204     2     17.870001  46.699001  46.967999
205     2     60.162998  74.317001  38.956001
206     2     59.235001  74.183998  38.139999
207     2     66.945999  70.370003  76.919998
208     2     65.786003  70.277000  77.355003
209     2     17.000999  47.366001  40.573002
210     2     16.655001  46.903999  41.673000
211     2     12.460000  18.563000  35.490002
212     2     12.653000  17.974001  36.566002
213     2     42.859001  70.411003  74.099998
214     2     42.327999  71.531998  74.032997
215     2     11.500000  67.330002  6.451000
216     2     12.328000  67.973999  5.786000
217     2     21.480000  46.597000  53.070000
218     2     20.367001  47.080002  53.334999
219     2     66.782997  22.406000  46.675999
220     2     66.709000  21.205999  46.363998
221     2     57.106998  60.513000  72.806000
222     2     57.889999  60.771999  71.875999
223     2     59.611000  64.598000  76.531998
224     2     58.845001  64.907997  75.603996
225     2     67.425003  20.510000  17.410000
226     2     66.223000  20.528999  17.096001
227     2     30.716999  40.335999  29.160999
228     2     31.299999  41.369999  28.796000
229     2     25.674000  71.556999  22.892000
230     2     26.745001  72.110001  22.587999
231     2     13.547000  73.527000  75.417999
232     2     13.889000  74.521004  76.078003
233     2     38.292000  23.900999  12.346000
234     2     37.741001  22.799999  12.515000
235     2     41.092999  49.129002  2.001000
236     2     41.398998  49.131001  0.797000
237     2     15.034000  69.279999  63.548000
238     2     15.207000  68.353996  62.737999
239     2     13.529000  76.302002  38.687000
240     2     14.423000  76.742996  37.945999
241     2     9.789000  48.459000  19.237000
242     2     9.660000  48.278999  18.014000
243     2     52.054001  60.344002  40.429001
244     2     51.416000  59.351002  40.041000
245     2     31.766001  43.750000  46.534000
246     2     31.268000  44.888000  46.502998
247     2     2.575000  62.874001  30.643000
248     2     3.281000  62.501999  31.596001
249     2     61.230000  56.561001  77.521004
250     2     61.278000  57.730000  77.940002
251     2     80.000000  8.882000  69.817001
252     2     79.806000  7.926000  69.047997
253     2     62.646999  2.577000  32.290001
254     2     62.370998  1.414000  32.631001
255     2     25.829000  34.735001  5.044000
256     2     25.250000  35.507000  5.827000
257     2     58.939999  26.610001  20.180000
258     2     59.683998  27.399000  20.785999
259     2     50.158001  69.047997  51.041000
260     2     48.958000  69.031998  51.361000
261     2     74.036003  52.446999  38.896999
262     2     72.846001  52.530998  39.241001
263     2     73.310997  34.941002  47.580002
264     2     73.656998  36.080002  47.933998
265     2     69.237000  5.534000  0.550000
266     2     68.893997  4.521000  -0.084000
267     2     47.181999  29.035000  31.983999
268     2     47.707001  29.639999  31.035000
269     2     67.704002  53.518002  67.722000
270     2     68.404999  52.562000  68.093002
271     2     17.990999  29.587000  26.184000
272     2     19.075001  30.180000  26.313999
273     2     12.136000  71.513000  34.987000
274     2     12.883000  72.504997  34.973999
275     2     5.034000  16.681999  7.139000
276     2     4.518000  15.595000  6.833000
277     2     5.726000  29.445000  14.254000
278     2     6.802000  29.386000  14.872000
279     2     0.697000  66.136002  48.243999
280     2     1.916000  65.975998  48.066002
281     2     21.728001  15.203000  19.033001
282     2     21.914000  16.431000  19.010000
283     2     49.945000  49.505001  56.519001
284     2     48.854000  49.318001  55.955002
285     2     68.296997  58.566002  6.501000
286     2     68.989998  59.535000  6.852000
287     2     43.570000  78.195999  52.803001
288     2     43.192001  77.774002  53.908001
289     2     34.798000  43.520000  46.097000
290     2     35.932999  43.049000  45.918999
291     2     27.716000  7.901000  17.830000
292     2     28.704000  8.618000  17.599001
293     2     33.923000  39.208000  3.950000
294     2     34.328999  38.220001  4.584000
295     2     39.109001  34.835999  31.923000
296     2     37.948002  34.395000  31.886999
297     2     65.508003  31.068001  8.806000
298     2     66.432999  31.209000  7.989000
299     2     57.111000  40.078999  66.464996
300     2     56.395000  40.720001  67.252998
301     2     66.716003  68.422997  3.358000
302     2     66.809998  67.214996  3.083000
303     2     27.778000  37.112000  6.680000
304     2     27.348000  35.948002  6.613000
305     2     75.553001  32.790001  28.639999
306     2     74.536003  33.502998  28.632000
307     2     10.579000  34.691002  49.049999
308     2     10.779000  35.808998  49.551998
309     2     1.903000  62.639000  70.857002
310     2     0.666000  62.594002  70.744003
311     2     4.594000  48.042000  77.900002
312     2     3.776000  48.771000  78.486000
313     2     76.584999  42.980000  5.612000
314     2     75.569000  42.761002  4.932000
315     2     78.667999  12.281000  62.433998
316     2     78.171997  12.151000  61.301998
317     2     35.268002  53.230000  74.926003
318     2     34.094002  53.611000  74.790001
319     2     32.528000  7.068000  58.942001
320     2     33.341000  6.179000  59.243999
321     2     68.924004  23.045000  29.138000
322     2     67.695999  22.867001  29.200001
323     2     11.264000  76.999001  3.412000
324     2     11.422000  75.890999  2.875000
325     2     23.858999  58.021000  52.056999
326     2     23.683001  58.957001  51.258999
327     2     48.453999  73.179001  77.348999
328     2     49.074001  74.181999  77.738998
329     2     24.583000  50.419998  1.779000
330     2     25.669001  50.901001  2.141000
331     2     37.905998  5.677000  66.253998
332     2     39.125999  5.908000  66.209000
333     2     11.349000  29.684000  64.155998
334     2     12.571000  29.796000  64.348999
335     2     7.411000  29.964001  52.865002
336     2     7.255000  29.497999  54.006001
337     2     47.669998  22.073999  38.668999
338     2     47.023998  21.087999  39.058998
339     2     4.874000  22.882000  69.303001
340     2     4.124000  21.893999  69.375000
341     2     68.364998  79.593002  4.476000
342     2     67.169998  79.446999  4.168000
343     2     54.224998  32.567001  63.916000
344     2     53.480000  31.584000  64.066002
345     2     14.294000  77.246002  35.632000
346     2     15.396000  77.820000  35.617001
347     2     60.020000  75.626999  48.141998
348     2     60.075001  74.783997  47.230999
349     2     5.069000  11.825000  6.016000
350     2     4.010000  11.198000  5.845000
351     2     44.057999  74.337997  73.302002
352     2     43.175999  73.538002  73.656998
353     2     31.924000  26.099001  17.118999
354     2     33.162998  26.021000  17.105000
355     2     2.151000  55.316002  48.279999
356     2     3.237000  55.383999  48.877998
357     2     14.949000  56.980999  25.521000
358     2     14.897000  56.973000  24.280001
359     2     73.609001  48.200001  2.855000
360     2     72.639999  47.830002  2.172000
361     2     38.254002  43.529999  21.211000
362     2     38.808998  44.098999  20.257000
363     2     55.817001  8.555000  77.963997
364     2     56.237999  9.655000  77.568001
365     2     36.786999  36.512001  35.263000
366     2     37.942001  36.903999  35.499001
367     2     0.341000  21.423000  22.000000
368     2     -0.004000  22.356001  22.745001
369     2     2.180000  40.578999  30.184999
370     2     2.210000  41.209999  29.115000
371     2     57.793999  77.720001  56.097000
372     2     58.964001  77.417999  55.806000
373     2     43.973000  76.126999  24.874001
374     2     43.896000  76.598999  23.728001
375     2     55.298000  39.813000  4.638000
376     2     55.735001  40.337002  3.599000
377     2     55.738998  2.802000  50.432999
378     2     55.528000  3.907000  49.905998
379     2     47.339001  59.730999  8.845000
380     2     46.307999  60.415001  8.957000
381     2     38.580002  72.759003  74.358002
382     2     37.651001  71.982002  74.083000
383     2     30.827000  19.841999  9.190000
384     2     30.357000  19.083000  8.327000
385     2     41.948002  31.031000  65.664001
386     2     41.235001  31.799999  66.329002
387     2     52.310001  57.993999  3.620000
388     2     51.877998  58.623001  2.639000
389     2     29.461000  39.244999  41.379002
390     2     28.252001  38.992001  41.250000
391     2     54.507000  24.507999  41.747002
392     2     55.513000  23.780001  41.771000
393     2     27.476999  69.685997  0.041000
394     2     26.271000  69.980003  -0.016000
395     2     26.940001  21.239000  56.849998
396     2     26.318001  22.313999  56.872002
397     2     39.874001  14.954000  9.679000
398     2     40.397999  13.828000  9.713000
399     2     53.596001  62.813000  74.862000
400     2     54.103001  63.133999  75.948997
401     2     38.556999  74.045998  53.655998
402     2     39.214001  75.028999  54.036999
403     2     69.135002  28.263000  35.868000
404     2     68.195000  29.038000  36.112999
405     2     52.407001  77.383003  49.438000
406     2     53.639000  77.341003  49.278999
407     2     29.813999  24.957001  60.479000
408     2     28.941000  24.665001  59.644001
409     2     76.066002  75.504997  62.132999
410     2     76.436996  76.675003  62.323002
411     2     27.608000  61.734001  35.078999
412     2     27.361000  62.945000  35.200001
413     2     2.144000  8.461000  37.067001
414     2     1.375000  7.486000  37.095001
415     2     39.601002  46.084000  74.306000
416     2     39.199001  44.910999  74.372002
417     2     5.192000  3.370000  46.582001
418     2     5.988000  3.580000  45.653000
419     2     13.227000  52.497002  24.191000
420     2     13.781000  53.602001  24.313999
421     2     63.150002  1.076000  50.000999
422     2     62.131001  0.509000  49.574001
423     2     49.681000  49.737000  47.307999
424     2     50.515999  49.369999  48.151001
425     2     0.790000  66.549004  33.182999
426     2     1.833000  66.768997  33.820000
427     2     13.538000  25.591000  70.203003
428     2     14.159000  25.396000  69.144997
429     2     44.470001  41.507999  1.409000
430     2     43.998001  41.433998  0.262000
431     2     59.060001  68.258003  36.438000
432     2     59.912998  68.526001  37.300999
433     2     37.715000  7.400000  78.885002
434     2     38.691002  6.657000  79.084000
435     2     80.000999  20.316999  60.223000
436     2     79.247002  21.273001  60.471001
437     2     26.135000  15.901000  69.494003
438     2     26.763000  14.983000  70.046997
439     2     1.733000  16.708000  24.000999
440     2     1.724000  17.912001  24.309999
441     2     59.783001  6.246000  25.996000
442     2     60.452999  5.202000  26.062000
443     2     72.308998  70.140999  10.020000
444     2     72.442001  69.019997  9.500000
445     2     65.634003  21.372000  72.107002
446     2     64.628998  20.643000  72.136002
447     2     45.005001  77.587997  29.062000
448     2     45.070999  78.169998  30.157000
449     2     63.459000  8.155000  65.875000
450     2     63.257999  9.364000  66.079002
451     2     64.449997  45.929001  79.971001
452     2     63.479000  45.154999  80.012001
453     2     79.014999  70.664001  46.485001
454     2     77.859001  70.313004  46.775002
455     2     7.943000  48.846001  16.285000
456     2     7.612000  48.108002  17.229000
457     2     11.033000  34.534000  51.418999
458     2     11.713000  35.556999  51.603001
459     2     69.945000  12.192000  45.646000
460     2     70.945000  12.482000  44.969002
461     2     2.109000  22.427000  23.354000
462     2     2.208000  21.197001  23.205999
463     2     78.141998  36.625000  43.395000
464     2     78.844002  36.687000  44.417999
465     2     67.953003  10.779000  4.426000
466     2     68.221001  9.637000  4.018000
467     2     38.564999  74.570999  34.377998
468     2     37.353001  74.841003  34.324001
469     2     70.408997  8.154000  18.149000
470     2     71.584000  8.031000  17.764000
471     2     40.493000  63.459000  46.255001
472     2     39.328999  63.203999  45.902000
473     2     59.320000  15.212000  25.969000
474     2     60.172001  14.335000  25.753000
475     2     79.268997  45.612000  59.994999
476     2     78.338997  45.227001  59.266998
477     2     -0.003000  7.526000  59.368000
478     2     0.024000  7.393000  60.603001
479     2     55.345001  73.039001  38.328999
480     2     54.444000  72.186996  38.257000
481     2     71.400002  10.172000  9.505000
482     2     70.436996  10.650000  10.127000
483     2     7.667000  44.296001  50.459999
484     2     8.819000  44.737999  50.598999
485     2     12.518000  56.730999  64.527000
486     2     12.212000  56.375999  65.677002
487     2     18.809999  48.368999  2.490000
488     2     17.766001  49.000999  2.257000
489     2     1.017000  17.815001  78.496002
490     2     -0.000000  18.197001  79.098000
491     2     36.021999  78.754997  77.903000
492     2     36.994999  77.999001  77.750000
493     2     72.429001  51.091999  31.549999
494     2     72.439003  51.946999  32.452000
495     2     56.632000  45.348000  77.617996
496     2     55.622002  44.625999  77.658997
497     2     12.496000  69.670998  77.682999
498     2     12.224000  70.353996  78.683998
499     2     45.957001  61.021000  12.264000
500     2     45.129002  61.905998  12.535000
501     2     19.903999  15.324000  60.945000
502     2     19.483999  16.358999  60.401001
503     2     68.066002  62.431000  56.507000
504     2     69.297997  62.551998  56.402000
505     2     12.708000  35.212002  62.963001
506     2     13.496000  34.409000  63.488998
507     2     15.216000  75.814003  62.715000
508     2     15.359000  76.962997  63.166000
509     2     61.112999  41.363998  64.797997
510     2     60.240002  41.988998  65.422997
511     2     25.179001  56.312000  20.657000
512     2     24.575001  55.970001  21.687000
513     2     20.541000  74.482002  66.916000
514     2     20.738001  73.482002  67.626999
515     2     13.935000  42.242001  57.053001
516     2     13.490000  42.705002  55.991001
517     2     46.209999  5.833000  19.143999
518     2     45.377998  6.069000  18.252001
519     2     44.326000  23.357000  50.299999
520     2     45.368999  23.027000  49.710999
521     2     37.013000  77.255997  20.809999
522     2     36.969002  78.114998  19.914000
523     2     73.890999  61.541000  12.233000
524     2     72.907997  60.782001  12.241000
525     2     21.663000  30.533001  30.201000
526     2     20.608999  31.069000  29.820000
527     2     35.865002  23.028999  80.000999
528     2     36.161999  21.823000  79.971001
529     2     46.263000  59.099998  55.088001
530     2     47.495998  59.168999  54.952999
531     2     9.157000  43.554001  46.889999
532     2     8.562000  42.707001  47.577000
533     2     60.037998  7.328000  54.001999
534     2     60.404999  8.276000  54.716999
535     2     61.633999  5.007000  60.895000
536     2     61.209999  5.152000  59.736000
537     2     47.470001  57.049999  72.755997
538     2     46.450001  57.632999  73.156998
539     2     59.386002  28.011999  51.627998
540     2     58.474998  27.183001  51.792000
541     2     32.624001  71.134003  39.480000
542     2     31.608000  70.420998  39.429001
543     2     14.079000  40.790001  26.445999
544     2     14.118000  40.938000  25.212999
545     2     4.025000  28.030001  52.158001
546     2     4.430000  26.900999  52.481998
547     2     36.123001  77.138000  22.989000
548     2     37.362000  77.227997  22.997000
549     2     9.585000  31.146000  10.612000
550     2     9.373000  30.538000  11.675000
551     2     67.029999  28.832001  55.793999
552     2     66.055000  28.605000  56.528000
553     2     65.480003  20.125999  61.266998
554     2     66.554001  19.716999  61.737999
555     2     58.154999  10.541000  72.629997
556     2     59.396999  10.511000  72.657997
557     2     35.856998  13.135000  4.035000
558     2     34.639000  13.282000  4.235000
559     2     45.219002  16.077999  24.250999
560     2     44.140999  16.150000  24.864000
561     2     16.844999  10.784000  52.460999
562     2     16.105000  11.772000  52.320999
563     2     76.009003  22.205999  68.278999
564     2     74.799004  22.131001  68.550003
565     2     5.529000  54.972000  22.329000
566     2     6.083000  53.980000  21.827000
567     2     31.427000  73.033997  70.197998
568     2     32.629002  72.899002  69.914001
569     2     67.500999  36.060001  42.217999
570     2     66.679001  36.991001  42.231998
571     2     23.854000  71.195999  25.025000
572     2     24.649000  72.117996  24.777000
573     2     7.355000  30.995001  10.903000
574     2     7.674000  30.031000  10.187000
575     2     23.709000  6.400000  49.492001
576     2     24.563000  6.457000  50.393002
577     2     21.975000  57.900002  34.848999
578     2     22.458000  58.840000  35.501999
579     2     41.424000  60.035999  75.234001
580     2     42.201000  60.535999  74.402000
581     2     54.008999  22.830000  59.897999
582     2     53.062000  22.445999  60.604000
583     2     36.763000  8.322000  69.133003
584     2     37.577999  8.825000  68.343002
585     2     66.384003  34.596001  66.741997
586     2     65.517998  35.410000  66.383003
587     2     7.871000  71.005997  10.484000
588     2     7.627000  70.749001  11.675000
589     2     29.673000  13.154000  3.063000
590     2     30.799999  12.635000  3.000000
591     2     18.709000  40.521999  78.722000
592     2     18.454000  40.533001  79.938004
593     2     64.043999  15.101000  68.790001
594     2     62.879002  14.914000  69.176003
595     2     42.257999  27.695999  76.551003
596     2     43.292999  28.034000  75.953003
597     2     19.040001  31.629999  67.267998
598     2     20.215000  31.368000  66.959999
599     2     44.359001  47.215000  3.469000
600     2     44.124001  48.368999  3.075000
601     2     73.533997  42.410000  59.028999
602     2     72.871002  43.459000  59.094002
603     2     76.132004  0.164000  35.125999
604     2     77.288002  0.242000  34.679001
605     2     62.111000  11.401000  51.890999
606     2     63.035000  11.397000  52.721001
607     2     5.843000  11.829000  44.639999
608     2     4.826000  12.447000  44.283001
609     2     60.581001  41.666000  41.248001
610     2     59.422001  41.275002  41.028999
611     2     33.558998  41.930000  62.410000
612     2     32.368000  42.178001  62.159000
613     2     41.261002  0.810000  37.876999
614     2     42.373001  0.479000  37.433998
615     2     43.569000  77.732002  36.848999
616     2     43.879002  78.847000  36.397999
617     2     22.040001  8.173000  12.290000
618     2     22.261000  9.389000  12.156000
619     2     10.080000  61.441002  56.073002
620     2     9.925000  62.514000  55.466000
621     2     48.020000  73.564003  11.759000
622     2     47.125999  72.860001  12.257000
623     2     49.265999  11.384000  36.139000
624     2     48.594002  12.419000  36.000000
625     2     71.750000  0.501000  -0.001000
626     2     70.835999  1.343000  -0.006000
627     2     15.678000  72.259003  53.523998
628     2     15.798000  71.126999  53.026001
629     2     1.672000  40.797001  69.737000
630     2     0.792000  40.955002  68.875000
631     2     68.925003  27.655001  19.882000
632     2     69.438004  26.606001  20.304001
633     2     24.537001  45.439999  32.159000
634     2     24.108000  44.289001  32.346001
635     2     75.775002  43.303001  9.967000
636     2     75.001999  42.332001  10.013000
637     2     19.677999  25.903999  64.695000
638     2     20.593000  26.600000  64.223999
639     2     8.557000  55.410000  46.025002
640     2     9.789000  55.469002  46.173000
641     2     11.683000  34.880001  10.739000
642     2     11.733000  34.700001  9.511000
643     2     7.000000  51.481998  27.337000
644     2     5.864000  51.035999  27.103001
645     2     2.812000  60.771000  76.741997
646     2     3.219000  61.075001  77.875999
647     2     76.585999  58.594002  8.471000
648     2     77.402000  58.966999  7.612000
649     2     7.995000  74.343002  63.606998
650     2     7.345000  75.397003  63.511002
651     2     61.540001  35.518002  79.920998
652     2     61.019001  34.395000  80.023003
653     2     53.007000  77.077003  63.513000
654     2     51.887001  76.672997  63.868999
655     2     18.077000  70.482002  64.675003
656     2     17.035000  70.064003  64.142998